# vtk DataFile Version 3.0
vtk output
ASCII
DATASET STRUCTURED_POINTS
DIMENSIONS 2 2 2
SPACING 1 1 1
ORIGIN 0 0 0
POINT_DATA 8
COLOR_SCALARS scalars 1
0.164706 0.168627 0.172549 
0.176471 0.180392 
0.184314 0.188235 
0.192157 
