# vtk DataFile Version 3.0
vtk output
ASCII
DATASET STRUCTURED_POINTS
DIMENSIONS 2 2 2
SPACING 1 1 1
ORIGIN 0 0 0
POINT_DATA 8
SCALARS scalars unsigned_short
LOOKUP_TABLE default
42 43 44 45 46 47 48 49 
